 
40 atoms
3 atom types

26 bonds
13 angles

1 bond types
1 angle types

0 7.6 xlo xhi
0 7.6 ylo yhi
0 7.6 zlo zhi


Masses

1 15.9994   # O 
2 1.008  # H
3 12.0107 # C


Atoms

1 1 1 -1.04 5.268527 2.901404 3.909148 0 0 0
2 1 2 0.52 5.973541 2.548801 3.311877 0 0 0
3 1 2 0.52 5.748656 3.542812 4.457588 0 0 0
4 2 1 -1.04 5.041556 6.183435 3.825883 0 0 0
5 2 2 0.52 5.032414 6.573149 4.734809 0 0 0
6 2 2 0.52 5.420942 6.896553 3.287142 0 0 0
7 3 1 -1.04 3.673182 2.603513 1.709046 0 0 0
8 3 2 0.52 3.392200 3.528573 1.917421 0 0 0
9 3 2 0.52 3.378132 2.105618 2.488635 0 0 0
10 4 1 -1.04 6.588374 1.318443 4.983237 0 0 0
11 4 2 0.52 7.314066 0.646693 4.968102 0 0 0
12 4 2 0.52 5.877116 0.881652 4.487214 0 0 0
13 5 1 -1.04 4.960403 4.613618 0.356825 0 0 0
14 5 2 0.52 5.052189 3.845897 0.973498 0 0 0
15 5 2 0.52 4.064336 4.500581 0.000452 0 0 0
16 6 1 -1.04 5.917220 0.007274 0.737455 0 0 0
17 6 2 0.52 5.433286 0.461438 0.004210 0 0 0
18 6 2 0.52 6.554537 0.680069 1.027089 0 0 0
19 7 1 -1.04 2.453801 1.565457 4.844225 0 0 0
20 7 2 0.52 3.209212 2.073321 4.457529 0 0 0
21 7 2 0.52 2.462808 0.739586 4.333763 0 0 0
22 8 1 -1.04 0.487112 3.590153 4.937386 0 0 0
23 8 2 0.52 1.273480 3.347469 5.485871 0 0 0
24 8 2 0.52 0.887910 3.944093 4.126953 0 0 0
25 9 1 -1.04 3.017575 6.079075 2.780339 0 0 0
26 9 2 0.52 2.683971 6.457493 3.630994 0 0 0
27 9 2 0.52 3.108540 5.133984 2.983421 0 0 0
28 10 1 -1.04 4.054671 1.186919 6.091321 0 0 0
29 10 2 0.52 4.133551 0.436242 5.452285 0 0 0
30 10 2 0.52 4.930575 1.209566 6.509643 0 0 0
31 11 1 -1.04 6.681709 4.519351 2.339639 0 0 0
32 11 2 0.52 6.692953 4.793236 3.289884 0 0 0
33 11 2 0.52 7.298957 3.770084 2.321792 0 0 0
34 12 1 -1.04 2.521118 1.314754 0.257281 0 0 0
35 12 2 0.52 1.666116 1.655176 0.619484 0 0 0
36 12 2 0.52 2.963524 2.122049 -0.051371 0 0 0
37 13 1 -1.04 4.195571 -0.079518 2.107077 0 0 0
38 13 2 0.52 4.013786 0.321807 2.992514 0 0 0
39 13 2 0.52 4.285705 0.696623 1.530715 0 0 0
40 14 3 0 0.000000 -0.000000 7.300000 0 0 0


Bonds

1 1 1 2
2 1 1 3
3 1 4 5
4 1 4 6
5 1 7 8
6 1 7 9
7 1 10 11
8 1 10 12
9 1 13 14
10 1 13 15
11 1 16 17
12 1 16 18
13 1 19 20
14 1 19 21
15 1 22 23
16 1 22 24
17 1 25 26
18 1 25 27
19 1 28 29
20 1 28 30
21 1 31 32
22 1 31 33
23 1 34 35
24 1 34 36
25 1 37 38
26 1 37 39


Angles

1 1 2 1 3
2 1 5 4 6
3 1 8 7 9
4 1 11 10 12
5 1 14 13 15
6 1 17 16 18
7 1 20 19 21
8 1 23 22 24
9 1 26 25 27
10 1 29 28 30
11 1 32 31 33
12 1 35 34 36
13 1 38 37 39
