 
46 atoms
3 atom types

30 bonds
15 angles

1 bond types
1 angle types

0 7.91 xlo xhi
0 7.91 ylo yhi
0 7.91 zlo zhi


Masses

1 15.9994   # O 
2 1.008  # H
3 12.0107 # C


 
Atoms

1 1 1 -1.04 2.643816 1.141093 3.735826 0 0 0
2 1 2 0.52 2.488756 1.631108 4.580781 0 0 0
3 1 2 0.52 2.623507 0.211776 4.016312 0 0 0
4 2 1 -1.04 0.457933 3.409516 5.492724 0 0 0
5 2 2 0.52 0.750396 2.866306 4.719747 0 0 0
6 2 2 0.52 1.233366 3.392135 6.076776 0 0 0
7 3 1 -1.04 3.950675 4.509479 3.038046 0 0 0
8 3 2 0.52 3.822932 5.111162 3.812492 0 0 0
9 3 2 0.52 4.751852 4.015381 3.276156 0 0 0
10 4 1 -1.04 5.999144 0.655807 6.223726 0 0 0
11 4 2 0.52 5.314751 1.080224 6.797819 0 0 0
12 4 2 0.52 6.387396 1.411190 5.753225 0 0 0
13 5 1 -1.04 7.005727 4.369858 2.271328 0 0 0
14 5 2 0.52 6.131108 4.753664 2.527923 0 0 0
15 5 2 0.52 7.603914 4.716452 2.953060 0 0 0
16 6 1 -1.04 3.628985 0.635366 0.298389 0 0 0
17 6 2 0.52 3.084165 1.361622 0.690599 0 0 0
18 6 2 0.52 4.528242 1.000718 0.322259 0 0 0
19 7 1 -1.04 4.123789 2.093291 2.634947 0 0 0
20 7 2 0.52 4.108086 1.126799 2.844116 0 0 0
21 7 2 0.52 4.281843 2.106107 1.677049 0 0 0
22 8 1 -1.04 3.290532 6.109002 2.342162 0 0 0
23 8 2 0.52 2.364544 6.124141 1.995141 0 0 0
24 8 2 0.52 3.442087 7.033198 2.598300 0 0 0
25 9 1 -1.04 2.993847 6.908878 0.062927 0 0 0
26 9 2 0.52 3.939470 7.112154 0.269283 0 0 0
27 9 2 0.52 2.541189 7.741495 0.274025 0 0 0
28 10 1 -1.04 1.699287 4.667135 3.899322 0 0 0
29 10 2 0.52 2.284441 4.587561 3.105994 0 0 0
30 10 2 0.52 2.333341 4.747094 4.630278 0 0 0
31 11 1 -1.04 1.408623 7.001734 6.724594 0 0 0
32 11 2 0.52 1.016816 7.297345 7.583202 0 0 0
33 11 2 0.52 0.990602 7.594446 6.079099 0 0 0
34 12 1 -1.04 3.891487 3.515987 5.733817 0 0 0
35 12 2 0.52 3.326396 3.355210 4.938248 0 0 0
36 12 2 0.52 3.370155 3.125126 6.453646 0 0 0
37 13 1 -1.04 6.326394 6.754171 4.081914 0 0 0
38 13 2 0.52 6.264479 6.121360 3.324403 0 0 0
39 13 2 0.52 6.792608 7.512575 3.694381 0 0 0
40 14 1 -1.04 0.448559 0.263225 2.378460 0 0 0
41 14 2 0.52 0.344020 1.246657 2.372081 0 0 0
42 14 2 0.52 0.125462 0.004325 1.500227 0 0 0
43 15 1 -1.04 0.357423 4.663228 2.138987 0 0 0
44 15 2 0.52 0.033233 4.823453 1.218479 0 0 0
45 15 2 0.52 0.953235 5.414092 2.293665 0 0 0
46 16 3 0 7.820000 0.000000 -0.000000 0 0 0


Bonds

1 1 1 2
2 1 1 3
3 1 4 5
4 1 4 6
5 1 7 8
6 1 7 9
7 1 10 11
8 1 10 12
9 1 13 14
10 1 13 15
11 1 16 17
12 1 16 18
13 1 19 20
14 1 19 21
15 1 22 23
16 1 22 24
17 1 25 26
18 1 25 27
19 1 28 29
20 1 28 30
21 1 31 32
22 1 31 33
23 1 34 35
24 1 34 36
25 1 37 38
26 1 37 39
27 1 40 41
28 1 40 42
29 1 43 44
30 1 43 45


Angles

1 1 2 1 3
2 1 5 4 6
3 1 8 7 9
4 1 11 10 12
5 1 14 13 15
6 1 17 16 18
7 1 20 19 21
8 1 23 22 24
9 1 26 25 27
10 1 29 28 30
11 1 32 31 33
12 1 35 34 36
13 1 38 37 39
14 1 41 40 42
15 1 44 43 45

